56
Lattice="7.74875895 0.0 0.0 3.87437948 6.7106221 0.0 0.0 0.0 50.54472532" Properties=species:S:1:pos:R:3:forces:R:3 energy=-2443452.239846346 config_type=h2cu pbc="T T T"
Cu       1.29145983       0.74562468       0.00000000       0.00050797      -0.00031023       0.06603257
Cu       3.87437948       0.74562468       0.00000000      -0.00049032      -0.00031019       0.06602792
Cu       6.45729913       0.74562468       0.00000000       0.00000958      -0.00111152       0.06609108
Cu       2.58291965       2.98249871       0.00000000       0.00000247       0.00005607       0.06535907
Cu       5.16583930       2.98249871       0.00000000      -0.00024138       0.00036004       0.06495780
Cu       7.74875895       2.98249871       0.00000000       0.00024714       0.00037203       0.06497197
Cu       3.87437948       5.21937274       0.00000000       0.00025389       0.00043829       0.06469608
Cu       6.45729913       5.21937274       0.00000000       0.00000536      -0.00008016       0.06398649
Cu       9.04021878       5.21937274       0.00000000      -0.00023146       0.00044268       0.06470046
Cu       7.74875895       1.49124936       2.10894506      -0.00050854      -0.00150375      -0.06323134
Cu       2.58291965       1.49124936       2.10894506      -0.00092296       0.00340676      -0.06673452
Cu       5.16583930       1.49124936       2.10894506      -0.00135901      -0.00148171      -0.06327296
Cu       9.04021878       3.72812339       2.10894506      -0.00291347      -0.00618717      -0.07720233
Cu       3.87437948       3.72812339       2.10894506       0.00108700      -0.00619636      -0.07721453
Cu       6.45729913       3.72812339       2.10894506      -0.00088114      -0.00458548      -0.07060162
Cu      10.33167860       5.96499742       2.10894506      -0.00088787       0.00660242      -0.07624647
Cu       5.16583930       5.96499742       2.10894506      -0.00599511       0.00438708      -0.06498721
Cu       7.74875895       5.96499742       2.10894506       0.00418681       0.00443967      -0.06486207
Cu      11.61544227       6.71059282       4.21128109       0.02388461       0.01176151       0.00361099
Cu       6.45603699       6.70983543       4.20516674       0.00028997       0.01445158       0.00609841
Cu       9.04545038       6.71059637       4.21127115      -0.02348254       0.01176176       0.00365794
Cu       9.03736969       2.23625909       4.20890236       0.00425944      -0.00046614      -0.02357027
Cu       3.87474253       2.23626945       4.20890686      -0.00389711      -0.00043275      -0.02356978
Cu       6.45604682       2.23480506       4.20829402       0.00023487       0.00058386       0.02066514
Cu      10.33047198       4.47562232       4.20097886       0.00018300      -0.01833010       0.01636186
Cu       5.16488524       4.47444157       4.20440971      -0.00958762      -0.00579195       0.00988061
Cu       7.74729842       4.47446159       4.20442802       0.00986649      -0.00587934       0.00984063
Cu       1.28267396       0.74306019       6.30869996       0.00774931       0.01911162       0.02283809
Cu       3.87870406       0.74304704       6.30856829      -0.00691398       0.01952892       0.02308787
Cu       6.45500833       0.75579242       6.34701672       0.00062688      -0.01268118      -0.05476898
Cu       2.58063716       2.98693956       6.30110674       0.00078955      -0.02554216       0.01997070
Cu       5.16604700       2.98363381       6.31296422      -0.02549138      -0.01055698       0.01653882
Cu       7.74406431       2.98355575       6.31291511       0.02601400      -0.01051065       0.01661277
Cu       3.87028895       5.21879459       6.31184944      -0.00817174       0.00396455       0.00087970
Cu       6.45512813       5.21802730       6.30709568       0.00020389       0.01769679       0.00144886
Cu       9.04001469       5.21880832       6.31184676       0.00789750       0.00393285       0.00080594
Cu       7.77612962       1.51573589       8.44896721      -0.09780615      -0.04813762      -0.04212264
Cu       2.58036130       1.49285840       8.38230360      -0.00139914      -0.01137516       0.35910378
Cu       9.04666107       3.71269456       8.40996355       0.01734810       0.04936264       0.11115094
Cu       3.86223722       3.71280330       8.41017550      -0.01560156       0.04972226       0.11095001
Cu       5.13297480       1.51605145       8.44892577       0.09826752      -0.04831514      -0.04217609
Cu       6.45465586       3.72993730       8.40485531       0.00029793      -0.02237535      -0.03822297
Cu      10.32877514       5.96781191       8.41520950      -0.00020350       0.05639141      -0.04815715
Cu       5.15868220       5.96385983       8.40381320      -0.00094884       0.00136496      -0.01313850
Cu       7.75012829       5.96426545       8.40372937       0.00125216       0.00119818      -0.01301667
Cu       5.16356504       0.02275251      10.48718022      -0.09485184      -0.01048368       0.08459944
Cu       6.45431740       2.24352844      10.50685430      -0.00025368      -0.00262653       0.05136289
Cu      10.32872781       4.54400441      10.50323823       0.00008820      -0.33044793       0.02697673
Cu       5.16551050       4.45657644      10.47197983      -0.10233079       0.01396531       0.09033082
Cu       7.74480429       4.45802455      10.47136975       0.09486304       0.00952875       0.09256290
Cu       7.74404633       0.02191024      10.48725099       0.09545002      -0.00948481       0.08472085
Cu       6.45298364       6.65780103      10.49104131       0.00488505       0.28019476       0.01487377
Cu       1.32521684       2.24142791      10.65506928      -0.11604451       0.00650730      -0.43145931
Cu       3.83258164       2.24203913      10.65479087       0.12066401       0.00366391      -0.43117858
H        0.00000000       0.00000000      20.65479087      -8.66759407       0.00000330      -0.00000997
H        0.60000000       0.00000000      20.65479087       8.66759400       0.00000280      -0.00000995
56
Lattice="7.74875895 0.0 0.0 3.87437948 6.7106221 0.0 0.0 0.0 50.54472532" Properties=species:S:1:pos:R:3:forces:R:3 energy=-2443451.186990556 config_type=h2cu pbc="T T T"
Cu       1.29145983       0.74562468       0.00000000       0.00050793      -0.00031030       0.06603563
Cu       3.87437948       0.74562468       0.00000000      -0.00049034      -0.00031023       0.06603098
Cu       6.45729913       0.74562468       0.00000000       0.00000972      -0.00111154       0.06609421
Cu       2.58291965       2.98249871       0.00000000       0.00000250       0.00005598       0.06536204
Cu       5.16583930       2.98249871       0.00000000      -0.00024127       0.00036011       0.06496095
Cu       7.74875895       2.98249871       0.00000000       0.00024717       0.00037202       0.06497499
Cu       3.87437948       5.21937274       0.00000000       0.00025397       0.00043836       0.06469927
Cu       6.45729913       5.21937274       0.00000000       0.00000521      -0.00008009       0.06398966
Cu       9.04021878       5.21937274       0.00000000      -0.00023140       0.00044267       0.06470355
Cu       7.74875895       1.49124936       2.10894506      -0.00050870      -0.00150393      -0.06323466
Cu       2.58291965       1.49124936       2.10894506      -0.00092293       0.00340659      -0.06673773
Cu       5.16583930       1.49124936       2.10894506      -0.00135881      -0.00148185      -0.06327627
Cu       9.04021878       3.72812339       2.10894506      -0.00291356      -0.00618695      -0.07720555
Cu       3.87437948       3.72812339       2.10894506       0.00108713      -0.00619623      -0.07721788
Cu       6.45729913       3.72812339       2.10894506      -0.00088106      -0.00458556      -0.07060507
Cu      10.33167860       5.96499742       2.10894506      -0.00088788       0.00660250      -0.07624994
Cu       5.16583930       5.96499742       2.10894506      -0.00599520       0.00438709      -0.06499062
Cu       7.74875895       5.96499742       2.10894506       0.00418695       0.00443962      -0.06486539
Cu      11.61544227       6.71059282       4.21128109       0.02388486       0.01176133       0.00361135
Cu       6.45603699       6.70983543       4.20516674       0.00028978       0.01445163       0.00609962
Cu       9.04545038       6.71059637       4.21127115      -0.02348260       0.01176185       0.00365961
Cu       9.03736969       2.23625909       4.20890236       0.00425954      -0.00046622      -0.02356915
Cu       3.87474253       2.23626945       4.20890686      -0.00389712      -0.00043264      -0.02356840
Cu       6.45604682       2.23480506       4.20829402       0.00023484       0.00058395       0.02066614
Cu      10.33047198       4.47562232       4.20097886       0.00018322      -0.01833014       0.01636305
Cu       5.16488524       4.47444157       4.20440971      -0.00958776      -0.00579184       0.00988141
Cu       7.74729842       4.47446159       4.20442802       0.00986644      -0.00587937       0.00984218
Cu       1.28267396       0.74306019       6.30869996       0.00774920       0.01911152       0.02283625
Cu       3.87870406       0.74304704       6.30856829      -0.00691461       0.01952936       0.02308629
Cu       6.45500833       0.75579242       6.34701672       0.00062769      -0.01268111      -0.05477062
Cu       2.58063716       2.98693956       6.30110674       0.00078957      -0.02554227       0.01996898
Cu       5.16604700       2.98363381       6.31296422      -0.02549159      -0.01055649       0.01653710
Cu       7.74406431       2.98355575       6.31291511       0.02601418      -0.01051107       0.01661175
Cu       3.87028895       5.21879459       6.31184944      -0.00817128       0.00396457       0.00087796
Cu       6.45512813       5.21802730       6.30709568       0.00020304       0.01769692       0.00144764
Cu       9.04001469       5.21880832       6.31184676       0.00789793       0.00393243       0.00080502
Cu       7.77612962       1.51573589       8.44896721      -0.09780581      -0.04813807      -0.04211676
Cu       2.58036130       1.49285840       8.38230360      -0.00140002      -0.01137552       0.35910742
Cu       9.04666107       3.71269456       8.40996355       0.01734797       0.04936260       0.11115433
Cu       3.86223722       3.71280330       8.41017550      -0.01560146       0.04972329       0.11095418
Cu       5.13297480       1.51605145       8.44892577       0.09826810      -0.04831513      -0.04217419
Cu       6.45465586       3.72993730       8.40485531       0.00029805      -0.02237522      -0.03821874
Cu      10.32877514       5.96781191       8.41520950      -0.00020275       0.05639132      -0.04815314
Cu       5.15868220       5.96385983       8.40381320      -0.00094926       0.00136512      -0.01313198
Cu       7.75012829       5.96426545       8.40372937       0.00125199       0.00119776      -0.01301486
Cu       5.16356504       0.02275251      10.48718022      -0.09485346      -0.01048360       0.08459630
Cu       6.45431740       2.24352844      10.50685430      -0.00025609      -0.00262692       0.05136245
Cu      10.32872781       4.54400441      10.50323823       0.00008600      -0.33044683       0.02697600
Cu       5.16551050       4.45657644      10.47197983      -0.10232973       0.01396378       0.09033093
Cu       7.74480429       4.45802455      10.47136975       0.09486368       0.00953079       0.09256213
Cu       7.74404633       0.02191024      10.48725099       0.09544700      -0.00948523       0.08472148
Cu       6.45298364       6.65780103      10.49104131       0.00488947       0.28019375       0.01487134
Cu       1.32521684       2.24142791      10.65506928      -0.11604408       0.00650976      -0.43146116
Cu       3.83258164       2.24203913      10.65479087       0.12066614       0.00366198      -0.43117891
H        0.00000000       0.00000000      20.65479087       4.69081917       0.00000333      -0.00001802
H        1.20000000       0.00000000      20.65479087      -4.69081969       0.00000236      -0.00002316
56
Lattice="7.74875895 0.0 0.0 3.87437948 6.7106221 0.0 0.0 0.0 50.54472532" Properties=species:S:1:pos:R:3:forces:R:3 energy=-2443448.466558712 config_type=h2cu pbc="T T T"
Cu       1.29145983       0.74562468       0.00000000       0.00050660      -0.00030331       0.06599057
Cu       3.87437948       0.74562468       0.00000000      -0.00048910      -0.00030318       0.06598577
Cu       6.45729913       0.74562468       0.00000000       0.00000970      -0.00110668       0.06604986
Cu       2.58291965       2.98249871       0.00000000       0.00000254       0.00005172       0.06531251
Cu       5.16583930       2.98249871       0.00000000      -0.00024185       0.00035412       0.06492861
Cu       7.74875895       2.98249871       0.00000000       0.00024766       0.00036583       0.06494251
Cu       3.87437948       5.21937274       0.00000000       0.00024936       0.00043793       0.06466411
Cu       6.45729913       5.21937274       0.00000000       0.00000515      -0.00008172       0.06397015
Cu       9.04021878       5.21937274       0.00000000      -0.00022675       0.00044230       0.06466775
Cu       7.74875895       1.49124936       2.10894506      -0.00051092      -0.00150551      -0.06318676
Cu       2.58291965       1.49124936       2.10894506      -0.00092295       0.00340573      -0.06669890
Cu       5.16583930       1.49124936       2.10894506      -0.00135656      -0.00148348      -0.06322809
Cu       9.04021878       3.72812339       2.10894506      -0.00291467      -0.00618492      -0.07716859
Cu       3.87437948       3.72812339       2.10894506       0.00108821      -0.00619420      -0.07718014
Cu       6.45729913       3.72812339       2.10894506      -0.00088109      -0.00458106      -0.07057443
Cu      10.33167860       5.96499742       2.10894506      -0.00088792       0.00660221      -0.07619795
Cu       5.16583930       5.96499742       2.10894506      -0.00599416       0.00438493      -0.06495717
Cu       7.74875895       5.96499742       2.10894506       0.00418597       0.00443734      -0.06483145
Cu      11.61544227       6.71059282       4.21128109       0.02389086       0.01176318       0.00364387
Cu       6.45603699       6.70983543       4.20516674       0.00028958       0.01445464       0.00612343
Cu       9.04545038       6.71059637       4.21127115      -0.02348843       0.01176370       0.00369362
Cu       9.03736969       2.23625909       4.20890236       0.00426387      -0.00046589      -0.02356077
Cu       3.87474253       2.23626945       4.20890686      -0.00390148      -0.00043220      -0.02355970
Cu       6.45604682       2.23480506       4.20829402       0.00023485       0.00058808       0.02069366
Cu      10.33047198       4.47562232       4.20097886       0.00018334      -0.01833639       0.01638681
Cu       5.16488524       4.47444157       4.20440971      -0.00958744      -0.00579257       0.00991744
Cu       7.74729842       4.47446159       4.20442802       0.00986593      -0.00588028       0.00987891
Cu       1.28267396       0.74306019       6.30869996       0.00775892       0.01912979       0.02298313
Cu       3.87870406       0.74304704       6.30856829      -0.00692491       0.01954803       0.02323295
Cu       6.45500833       0.75579242       6.34701672       0.00062840      -0.01266973      -0.05462054
Cu       2.58063716       2.98693956       6.30110674       0.00078968      -0.02554884       0.02011034
Cu       5.16604700       2.98363381       6.31296422      -0.02550803      -0.01057404       0.01666764
Cu       7.74406431       2.98355575       6.31291511       0.02603052      -0.01052928       0.01674248
Cu       3.87028895       5.21879459       6.31184944      -0.00817654       0.00395233       0.00101302
Cu       6.45512813       5.21802730       6.30709568       0.00020239       0.01771138       0.00156831
Cu       9.04001469       5.21880832       6.31184676       0.00790383       0.00391988       0.00093968
Cu       7.77612962       1.51573589       8.44896721      -0.09780908      -0.04815024      -0.04163993
Cu       2.58036130       1.49285840       8.38230360      -0.00140041      -0.01136177       0.35958361
Cu       9.04666107       3.71269456       8.40996355       0.01732595       0.04936667       0.11161419
Cu       3.86223722       3.71280330       8.41017550      -0.01557942       0.04972799       0.11141495
Cu       5.13297480       1.51605145       8.44892577       0.09827236      -0.04832675      -0.04170098
Cu       6.45465586       3.72993730       8.40485531       0.00029748      -0.02235243      -0.03780713
Cu      10.32877514       5.96781191       8.41520950      -0.00020182       0.05639531      -0.04776244
Cu       5.15868220       5.96385983       8.40381320      -0.00094965       0.00135285      -0.01272407
Cu       7.75012829       5.96426545       8.40372937       0.00125193       0.00118480      -0.01261057
Cu       5.16356504       0.02275251      10.48718022      -0.09484573      -0.01050611       0.08400571
Cu       6.45431740       2.24352844      10.50685430      -0.00025807      -0.00263940       0.05075960
Cu      10.32872781       4.54400441      10.50323823       0.00008427      -0.33039210       0.02634481
Cu       5.16551050       4.45657644      10.47197983      -0.10232455       0.01399529       0.08970877
Cu       7.74480429       4.45802455      10.47136975       0.09485929       0.00956410       0.09193790
Cu       7.74404633       0.02191024      10.48725099       0.09543607      -0.00950819       0.08413303
Cu       6.45298364       6.65780103      10.49104131       0.00489231       0.28013287       0.01422683
Cu       1.32521684       2.24142791      10.65506928      -0.11615409       0.00651184      -0.43191864
Cu       3.83258164       2.24203913      10.65479087       0.12077689       0.00366160      -0.43164414
H        0.00000000       0.00000000      20.65479087       2.84157247       0.00000329      -0.00012280
H        1.90000000       0.00000000      20.65479087      -2.84157073       0.00000055      -0.00014137
56
Lattice="7.74875895 0.0 0.0 0.0 7.74875895 0.0 0.0 0.0 49.132" Properties=species:S:1:pos:R:3:forces:R:3 energy=-2443448.526611869 config_type=h2cu pbc="T T T"
Cu       1.29145983       1.29145983       0.00000000      -0.00000101      -0.00038106       0.19347114
Cu       3.87437948       1.29145983       0.00000000       0.00043868      -0.00011986       0.19233760
Cu       6.45729913       1.29145983       0.00000000      -0.00042997      -0.00011701       0.19232493
Cu       1.29145983       3.87437948       0.00000000       0.00000716       0.00039904       0.19348396
Cu       3.87437948       3.87437948       0.00000000       0.00042615       0.00012720       0.19235365
Cu       6.45729913       3.87437948       0.00000000      -0.00042260       0.00012400       0.19236501
Cu       1.29145983       6.45729913       0.00000000      -0.00000104      -0.00000372       0.19385197
Cu       3.87437948       6.45729913       0.00000000       0.00023078       0.00001110       0.19090162
Cu       6.45729913       6.45729913       0.00000000      -0.00021681       0.00000939       0.19088993
Cu       0.00000000       0.00000000       1.82640000      -0.00237401      -0.00128111      -0.19424814
Cu       2.58291965       0.00000000       1.82640000       0.00311551      -0.00108831      -0.19410853
Cu       5.16583930       0.00000000       1.82640000       0.00022255      -0.00379862      -0.21309354
Cu       0.00000000       2.58291965       1.82640000      -0.00055697       0.00035821      -0.18984088
Cu       2.58291965       2.58291965       1.82640000       0.00110988       0.00048029      -0.18976422
Cu       5.16583930       2.58291965       1.82640000       0.00018907       0.00047861      -0.20224882
Cu       0.00000000       5.16583930       1.82640000      -0.00227678       0.00213684      -0.19394543
Cu       2.58291965       5.16583930       1.82640000       0.00314299       0.00225279      -0.19389395
Cu       5.16583930       5.16583930       1.82640000       0.00036659       0.00491329      -0.21280591
Cu       1.29155328       1.29203853       3.65389285       0.00019057      -0.00619190       0.00833758
Cu       3.87755553       1.28872385       3.65228351       0.00254739      -0.00177239      -0.00194287
Cu       6.45432484       1.28849083       3.65220618      -0.00273819      -0.00146669      -0.00141616
Cu       1.29166206       3.87426170       3.65391797       0.00004733       0.00617702       0.00832303
Cu       3.87763238       3.87788805       3.65224362       0.00262556       0.00146435      -0.00178689
Cu       6.45446861       3.87771287       3.65219314      -0.00289178       0.00165989      -0.00170073
Cu       1.29176518       6.45764196       3.65155504      -0.00001018      -0.00025294       0.00254210
Cu       3.88036090       6.45776436       3.65532755       0.00105334      -0.00032674      -0.00888569
Cu       6.45190548       6.45763720       3.65528518      -0.00144851      -0.00038112      -0.00869724
Cu       7.73742708       7.74359003       5.47563668       0.00712913       0.00302052      -0.01097300
Cu       2.59504722       7.74404942       5.47571312      -0.00762572       0.00260950      -0.01059403
Cu       5.16602399       7.74321170       5.50767362       0.00032106       0.00960118      -0.03140473
Cu       7.73437005       2.58299706       5.47544947       0.01243191       0.00080448      -0.08561109
Cu       2.59745179       2.58347168       5.47555669      -0.01193682       0.00004138      -0.08618080
Cu       5.16601499       2.58356204       5.47144455      -0.00021337      -0.00032876       0.08124224
Cu       7.73755908       5.17172253       5.47528129       0.00725177      -0.00338726      -0.00999126
Cu       2.59533424       5.17208509       5.47541381      -0.00770284      -0.00334783      -0.01052722
Cu       5.16654325       5.17261582       5.50748281      -0.00041113      -0.00996800      -0.03103656
Cu       1.29135910       1.29421383       7.24007707       0.00027762       0.02178824       0.47261136
Cu       3.86658709       1.30313829       7.32031054      -0.02534631      -0.04497046       0.05260877
Cu       1.29171415       3.87280158       7.23904143       0.00190064      -0.02157035       0.47699703
Cu       3.86729732       3.86564954       7.31978867      -0.02650595       0.04254040       0.05518641
Cu       6.46462178       1.30165766       7.31992220       0.02582862      -0.04251755       0.05306741
Cu       6.46562830       3.86460139       7.32025270       0.02322474       0.04372576       0.05036310
Cu       1.29262365       6.45779719       7.28836369      -0.00042880      -0.00028639       0.18791798
Cu       3.85193283       6.45823230       7.34951676       0.09550759       0.00066110      -0.08250923
Cu       6.48193070       6.45759291       7.34915766      -0.09616175      -0.00008750      -0.08133630
Cu       5.16647488       0.00625275       9.08153624       0.00043400       0.00264555       0.02252269
Cu       5.16502274       2.58418182       9.07573315      -0.00123022      -0.00098707       0.07217081
Cu       0.02059508       5.15575552       9.10883490      -0.01265988      -0.01171321      -0.11615018
Cu       2.56615511       5.15758223       9.10953418       0.01149540      -0.01106536      -0.11815593
Cu       5.16800057       5.16166283       9.08176211      -0.00251878      -0.00327988       0.02202825
Cu       0.01936413       0.00912555       9.10898784      -0.01227934       0.01260163      -0.11628196
Cu       2.56525274       0.01143477       9.10873604       0.01086704       0.01096312      -0.11515616
Cu       0.01647950       2.58225921       9.14733728       0.00101993       0.00116680      -0.28880137
Cu       2.56287421       2.58520959       9.14871717       0.00498608      -0.00207061      -0.29477039
H        0.00000000       0.00000000      19.14871717     -21.76955950       0.00000002      -0.00001922
H        0.50000000       0.00000000      19.14871717      21.76955915      -0.00000000      -0.00002012
56
Lattice="7.74875895 0.0 0.0 0.0 7.74875895 0.0 0.0 0.0 49.132" Properties=species:S:1:pos:R:3:forces:R:3 energy=-2443450.039391364 config_type=h2cu pbc="T T T"
Cu       1.29145983       1.29145983       0.00000000      -0.00000081      -0.00038112       0.19347067
Cu       3.87437948       1.29145983       0.00000000       0.00043892      -0.00011986       0.19233691
Cu       6.45729913       1.29145983       0.00000000      -0.00043024      -0.00011701       0.19232438
Cu       1.29145983       3.87437948       0.00000000       0.00000736       0.00039910       0.19348346
Cu       3.87437948       3.87437948       0.00000000       0.00042639       0.00012720       0.19235297
Cu       6.45729913       3.87437948       0.00000000      -0.00042297       0.00012397       0.19236449
Cu       1.29145983       6.45729913       0.00000000      -0.00000086      -0.00000374       0.19385151
Cu       3.87437948       6.45729913       0.00000000       0.00023094       0.00001109       0.19090093
Cu       6.45729913       6.45729913       0.00000000      -0.00021716       0.00000948       0.19088943
Cu       0.00000000       0.00000000       1.82640000      -0.00237410      -0.00128109      -0.19424467
Cu       2.58291965       0.00000000       1.82640000       0.00311585      -0.00108831      -0.19410518
Cu       5.16583930       0.00000000       1.82640000       0.00022239      -0.00379859      -0.21309051
Cu       0.00000000       2.58291965       1.82640000      -0.00055711       0.00035816      -0.18983729
Cu       2.58291965       2.58291965       1.82640000       0.00111028       0.00048030      -0.18976083
Cu       5.16583930       2.58291965       1.82640000       0.00018887       0.00047866      -0.20224568
Cu       0.00000000       5.16583930       1.82640000      -0.00227692       0.00213688      -0.19394187
Cu       2.58291965       5.16583930       1.82640000       0.00314334       0.00225281      -0.19389063
Cu       5.16583930       5.16583930       1.82640000       0.00036639       0.00491322      -0.21280290
Cu       1.29155328       1.29203853       3.65389285       0.00019069      -0.00619201       0.00833733
Cu       3.87755553       1.28872385       3.65228351       0.00254749      -0.00177241      -0.00194385
Cu       6.45432484       1.28849083       3.65220618      -0.00273830      -0.00146678      -0.00141692
Cu       1.29166206       3.87426170       3.65391797       0.00004747       0.00617702       0.00832250
Cu       3.87763238       3.87788805       3.65224362       0.00262562       0.00146428      -0.00178786
Cu       6.45446861       3.87771287       3.65219314      -0.00289197       0.00165988      -0.00170162
Cu       1.29176518       6.45764196       3.65155504      -0.00001004      -0.00025289       0.00254178
Cu       3.88036090       6.45776436       3.65532755       0.00105345      -0.00032668      -0.00888672
Cu       6.45190548       6.45763720       3.65528518      -0.00144858      -0.00038107      -0.00869800
Cu       7.73742708       7.74359003       5.47563668       0.00712934       0.00302046      -0.01097317
Cu       2.59504722       7.74404942       5.47571312      -0.00762639       0.00260946      -0.01059244
Cu       5.16602399       7.74321170       5.50767362       0.00032152       0.00960118      -0.03140122
Cu       7.73437005       2.58299706       5.47544947       0.01243224       0.00080456      -0.08561159
Cu       2.59745179       2.58347168       5.47555669      -0.01193762       0.00004135      -0.08617953
Cu       5.16601499       2.58356204       5.47144455      -0.00021283      -0.00032884       0.08124556
Cu       7.73755908       5.17172253       5.47528129       0.00725210      -0.00338734      -0.00999139
Cu       2.59533424       5.17208509       5.47541381      -0.00770362      -0.00334784      -0.01052568
Cu       5.16654325       5.17261582       5.50748281      -0.00041061      -0.00996796      -0.03103320
Cu       1.29135910       1.29421383       7.24007707       0.00027670       0.02178836       0.47261284
Cu       3.86658709       1.30313829       7.32031054      -0.02534712      -0.04497052       0.05260583
Cu       1.29171415       3.87280158       7.23904143       0.00189976      -0.02157060       0.47699851
Cu       3.86729732       3.86564954       7.31978867      -0.02650669       0.04254047       0.05518342
Cu       6.46462178       1.30165766       7.31992220       0.02583054      -0.04251758       0.05306572
Cu       6.46562830       3.86460139       7.32025270       0.02322645       0.04372583       0.05036152
Cu       1.29262365       6.45779719       7.28836369      -0.00042972      -0.00028628       0.18791789
Cu       3.85193283       6.45823230       7.34951676       0.09550713       0.00066107      -0.08251247
Cu       6.48193070       6.45759291       7.34915766      -0.09616028      -0.00008748      -0.08133861
Cu       5.16647488       0.00625275       9.08153624       0.00043133       0.00264550       0.02252001
Cu       5.16502274       2.58418182       9.07573315      -0.00123267      -0.00098739       0.07216921
Cu       0.02059508       5.15575552       9.10883490      -0.01266235      -0.01171324      -0.11614762
Cu       2.56615511       5.15758223       9.10953418       0.01150030      -0.01106549      -0.11815767
Cu       5.16800057       5.16166283       9.08176211      -0.00252122      -0.00327951       0.02202610
Cu       0.01936413       0.00912555       9.10898784      -0.01228231       0.01260147      -0.11627965
Cu       2.56525274       0.01143477       9.10873604       0.01087188       0.01096323      -0.11515920
Cu       0.01647950       2.58225921       9.14733728       0.00101739       0.00116705      -0.28879934